ITEM: TIMESTEP
0
ITEM: NUMBER OF ATOMS
8
ITEM: BOX BOUNDS pp pp pp
9.9219616563650237e-01 2.0707829834361650e+01
9.9219616563650237e-01 2.0707829834361650e+01
9.9219616563650237e-01 2.0707829834361650e+01
ITEM: ATOMS element vx vy vz
Na -0.0110486 0.000541754 -0.00148129
Na 0.0015834 -0.0039468 0.00312705
Na -0.002359 -0.00137569 0.0109192
Na 0.000476722 -0.000159077 -0.000687276
Cl -0.00066607 0.00132735 0.00833225
Cl -0.00439538 -0.0016108 -0.00247486
Cl 0.0092549 0.00547955 -0.0028745
Cl 0.00625268 0.000207666 0.00880222
ITEM: TIMESTEP
10
ITEM: NUMBER OF ATOMS
8
ITEM: BOX BOUNDS pp pp pp
9.9219616563650237e-01 2.0707829834361650e+01
9.9219616563650237e-01 2.0707829834361650e+01
9.9219616563650237e-01 2.0707829834361650e+01
ITEM: ATOMS element vx vy vz
Na -0.0115001 0.00061299 -0.00277326
Na 0.000376743 -0.00539694 0.00282515
Na -0.00243917 -0.00200066 0.0107157
Na -0.00181293 0.00144936 0.000974313
Cl -0.00033366 0.00157124 0.00902858
Cl -0.00463948 -0.00139857 -0.00327464
Cl 0.0100646 0.0076419 -0.0024436
Cl 0.00506171 0.000247059 0.00907165
ITEM: TIMESTEP
20
ITEM: NUMBER OF ATOMS
8
ITEM: BOX BOUNDS pp pp pp
9.9219616563650237e-01 2.0707829834361650e+01
9.9219616563650237e-01 2.0707829834361650e+01
9.9219616563650237e-01 2.0707829834361650e+01
ITEM: ATOMS element vx vy vz
Na -0.0110846 0.00182023 -0.00578593
Na -0.000312774 -0.00577385 0.00197945
Na -0.00122793 -0.00253233 0.00925278
Na -0.00484565 0.00362818 0.00304594
Cl -4.19482e-05 0.00185273 0.00983361
Cl -0.00481559 -0.00139856 -0.00365786
Cl 0.0105251 0.00893692 -0.00201054
Cl 0.00376298 0.000439037 0.00890057
ITEM: TIMESTEP
30
ITEM: NUMBER OF ATOMS
8
ITEM: BOX BOUNDS pp pp pp
9.9219616563650237e-01 2.0707829834361650e+01
9.9219616563650237e-01 2.0707829834361650e+01
9.9219616563650237e-01 2.0707829834361650e+01
ITEM: ATOMS element vx vy vz
Na -0.0104244 0.00366437 -0.00944612
Na -0.000665729 -0.00564761 0.000747104
Na 0.00177718 -0.00289058 0.00500454
Na -0.00778189 0.00558767 0.00542978
Cl 8.49863e-05 0.00207862 0.0107328
Cl -0.00490909 -0.00153038 -0.00359789
Cl 0.0105144 0.00965301 -0.00171429
Cl 0.00234144 0.000850174 0.00848267
ITEM: TIMESTEP
40
ITEM: NUMBER OF ATOMS
8
ITEM: BOX BOUNDS pp pp pp
9.9219616563650237e-01 2.0707829834361650e+01
9.9219616563650237e-01 2.0707829834361650e+01
9.9219616563650237e-01 2.0707829834361650e+01
ITEM: ATOMS element vx vy vz
Na -0.00999386 0.00542287 -0.0124717
Na -0.00080388 -0.00534077 -0.00080133
Na 0.00610103 -0.00310735 -0.0020839
Na -0.00974581 0.00653699 0.00764375
Cl 2.26951e-06 0.00217519 0.0115081
Cl -0.0049055 -0.00157166 -0.00364511
Cl 0.00998721 0.0100932 -0.00152191
Cl 0.00115136 0.00160239 0.00810461
ITEM: TIMESTEP
50
ITEM: NUMBER OF ATOMS
8
ITEM: BOX BOUNDS pp pp pp
9.9219616563650237e-01 2.0707829834361650e+01
9.9219616563650237e-01 2.0707829834361650e+01
9.9219616563650237e-01 2.0707829834361650e+01
ITEM: ATOMS element vx vy vz
Na -0.00975865 0.0066721 -0.0142688
Na -0.000821378 -0.00484442 -0.00254795
Na 0.00945637 -0.00330594 -0.00856755
Na -0.0102632 0.00628989 0.00916507
Cl -0.000193798 0.00214056 0.0119021
Cl -0.00486222 -0.00124264 -0.00406021
Cl 0.00910419 0.0102834 -0.00130244
Cl 0.000213933 0.00271471 0.00790799
ITEM: TIMESTEP
60
ITEM: NUMBER OF ATOMS
8
ITEM: BOX BOUNDS pp pp pp
9.9219616563650237e-01 2.0707829834361650e+01
9.9219616563650237e-01 2.0707829834361650e+01
9.9219616563650237e-01 2.0707829834361650e+01
ITEM: ATOMS element vx vy vz
Na -0.00943986 0.00729368 -0.0149789
Na -0.000890053 -0.00404573 -0.00429728
Na 0.0109418 -0.00340543 -0.0122811
Na -0.0093693 0.00520901 0.00981066
Cl -0.000382728 0.00213493 0.0118186
Cl -0.00474344 -0.000454509 -0.00474819
Cl 0.00808424 0.0101809 -0.000961557
Cl -0.000765075 0.0039902 0.00785129
ITEM: TIMESTEP
70
ITEM: NUMBER OF ATOMS
8
ITEM: BOX BOUNDS pp pp pp
9.9219616563650237e-01 2.0707829834361650e+01
9.9219616563650237e-01 2.0707829834361650e+01
9.9219616563650237e-01 2.0707829834361650e+01
ITEM: ATOMS element vx vy vz
Na -0.00883927 0.00718612 -0.0149808
Na -0.00123448 -0.002942 -0.00583186
Na 0.0116245 -0.00321911 -0.0139142
Na -0.00747136 0.00402281 0.00962155
Cl -0.000606215 0.00234331 0.0114354
Cl -0.0043834 0.000694092 -0.00567505
Cl 0.00698417 0.00971962 -0.000456848
Cl -0.00194493 0.00518138 0.00776487
ITEM: TIMESTEP
80
ITEM: NUMBER OF ATOMS
8
ITEM: BOX BOUNDS pp pp pp
9.9219616563650237e-01 2.0707829834361650e+01
9.9219616563650237e-01 2.0707829834361650e+01
9.9219616563650237e-01 2.0707829834361650e+01
ITEM: ATOMS element vx vy vz
Na -0.00789798 0.00625399 -0.0144908
Na -0.00206254 -0.00165973 -0.00701369
Na 0.0122628 -0.0028019 -0.0142895
Na -0.0050621 0.00360494 0.00862584
Cl -0.000905026 0.00274745 0.0110212
Cl -0.00365679 0.00209919 -0.00670024
Cl 0.00575344 0.00895088 0.000229473
Cl -0.00322982 0.00627807 0.00741773
ITEM: TIMESTEP
90
ITEM: NUMBER OF ATOMS
8
ITEM: BOX BOUNDS pp pp pp
9.9219616563650237e-01 2.0707829834361650e+01
9.9219616563650237e-01 2.0707829834361650e+01
9.9219616563650237e-01 2.0707829834361650e+01
ITEM: ATOMS element vx vy vz
Na -0.00652872 0.00459698 -0.0134169
Na -0.00348636 -0.00035627 -0.00777569
Na 0.0128987 -0.0024895 -0.0137553
Na -0.00254995 0.00460958 0.00686946
Cl -0.00124881 0.00323086 0.0107885
Cl -0.0026281 0.00362723 -0.00750022
Cl 0.00439831 0.00801949 0.00105643
Cl -0.0043761 0.00729758 0.00679955
ITEM: TIMESTEP
100
ITEM: NUMBER OF ATOMS
8
ITEM: BOX BOUNDS pp pp pp
9.9219616563650237e-01 2.0707829834361650e+01
9.9219616563650237e-01 2.0707829834361650e+01
9.9219616563650237e-01 2.0707829834361650e+01
ITEM: ATOMS element vx vy vz
Na -0.0045241 0.00251664 -0.0114943
Na -0.00529945 0.000879598 -0.00803157
Na 0.0133134 -0.00267963 -0.0124574
Na -0.000277821 0.00716028 0.00453621
Cl -0.00160306 0.00370126 0.0108471
Cl -0.00147971 0.00499169 -0.00783321
Cl 0.00302457 0.00691213 0.00201848
Cl -0.00522403 0.00799331 0.00613268
ITEM: TIMESTEP
110
ITEM: NUMBER OF ATOMS
8
ITEM: BOX BOUNDS pp pp pp
9.9219616563650237e-01 2.0707829834361650e+01
9.9219616563650237e-01 2.0707829834361650e+01
9.9219616563650237e-01 2.0707829834361650e+01
ITEM: ATOMS element vx vy vz
Na -0.00189706 0.000397629 -0.00881767
Na -0.0069696 0.00205763 -0.00769532
Na 0.0133093 -0.00344725 -0.0106083
Na 0.00152659 0.0106639 0.00197473
Cl -0.00192494 0.00412809 0.0111414
Cl -0.000442158 0.00598308 -0.0074705
Cl 0.0018607 0.00565484 0.00312199
Cl -0.00560273 0.00810693 0.00562143
ITEM: TIMESTEP
120
ITEM: NUMBER OF ATOMS
8
ITEM: BOX BOUNDS pp pp pp
9.9219616563650237e-01 2.0707829834361650e+01
9.9219616563650237e-01 2.0707829834361650e+01
9.9219616563650237e-01 2.0707829834361650e+01
ITEM: ATOMS element vx vy vz
Na 0.000688489 -0.00135213 -0.00624462
Na -0.00804221 0.00328103 -0.0066584
Na 0.0126446 -0.00409786 -0.00862211
Na 0.00280714 0.0140966 -0.000441333
Cl -0.00220002 0.00449734 0.0114431
Cl 0.000293562 0.00711268 -0.0062615
Cl 0.00118443 0.00437675 0.00424509
Cl -0.00522899 0.00768245 0.00521793
ITEM: TIMESTEP
130
ITEM: NUMBER OF ATOMS
8
ITEM: BOX BOUNDS pp pp pp
9.9219616563650237e-01 2.0707829834361650e+01
9.9219616563650237e-01 2.0707829834361650e+01
9.9219616563650237e-01 2.0707829834361650e+01
ITEM: ATOMS element vx vy vz
Na 0.0024498 -0.00244337 -0.00455096
Na -0.00834781 0.00475238 -0.00494844
Na 0.0107745 -0.00323839 -0.00689988
Na 0.00358929 0.0166495 -0.00236284
Cl -0.00245424 0.00480141 0.0114297
Cl 0.000609379 0.00838243 -0.00469827
Cl 0.00114681 0.00335393 0.00514048
Cl -0.00393876 0.0065974 0.00467063
ITEM: TIMESTEP
140
ITEM: NUMBER OF ATOMS
8
ITEM: BOX BOUNDS pp pp pp
9.9219616563650237e-01 2.0707829834361650e+01
9.9219616563650237e-01 2.0707829834361650e+01
9.9219616563650237e-01 2.0707829834361650e+01
ITEM: ATOMS element vx vy vz
Na 0.00325594 -0.00282897 -0.00369797
Na -0.00772952 0.00641893 -0.00303692
Na 0.00715972 0.000242944 -0.00555004
Na 0.00397072 0.0180299 -0.00346997
Cl -0.00247244 0.00489562 0.0107942
Cl 0.000397441 0.00934245 -0.00321906
Cl 0.00153618 0.00305675 0.00569114
Cl -0.00163794 0.00431587 0.00391405
ITEM: TIMESTEP
150
ITEM: NUMBER OF ATOMS
8
ITEM: BOX BOUNDS pp pp pp
9.9219616563650237e-01 2.0707829834361650e+01
9.9219616563650237e-01 2.0707829834361650e+01
9.9219616563650237e-01 2.0707829834361650e+01
ITEM: ATOMS element vx vy vz
Na 0.0034345 -0.00265081 -0.00326759
Na -0.00593807 0.00781872 -0.00143945
Na 0.00240509 0.00578839 -0.00450897
Na 0.00411672 0.0183374 -0.00360727
Cl -0.00184779 0.00439508 0.00935664
Cl -0.000453962 0.00963184 -0.00190296
Cl 0.00192343 0.00353222 0.00592217
Cl 0.00125868 0.00101042 0.00309512
ITEM: TIMESTEP
160
ITEM: NUMBER OF ATOMS
8
ITEM: BOX BOUNDS pp pp pp
9.9219616563650237e-01 2.0707829834361650e+01
9.9219616563650237e-01 2.0707829834361650e+01
9.9219616563650237e-01 2.0707829834361650e+01
ITEM: ATOMS element vx vy vz
Na 0.00334006 -0.00214914 -0.00298213
Na -0.0029628 0.00851582 -0.000331106
Na -0.00147609 0.0110506 -0.00365067
Na 0.00418283 0.0178372 -0.00281933
Cl -0.000391475 0.00308575 0.00717374
Cl -0.00170791 0.0090674 -0.000672575
Cl 0.00205084 0.00454542 0.00580906
Cl 0.0036219 -0.00204651 0.00241192
ITEM: TIMESTEP
170
ITEM: NUMBER OF ATOMS
8
ITEM: BOX BOUNDS pp pp pp
9.9219616563650237e-01 2.0707829834361650e+01
9.9219616563650237e-01 2.0707829834361650e+01
9.9219616563650237e-01 2.0707829834361650e+01
ITEM: ATOMS element vx vy vz
Na 0.00319967 -0.00160302 -0.00283605
Na 0.000790207 0.00835387 0.00034772
Na -0.0028966 0.0142035 -0.00263496
Na 0.00425231 0.0168781 -0.00133868
Cl 0.00143683 0.00138063 0.00478618
Cl -0.00286664 0.00788743 0.000454013
Cl 0.00185483 0.00588648 0.00536579
Cl 0.00472053 -0.00395376 0.00191443
ITEM: TIMESTEP
180
ITEM: NUMBER OF ATOMS
8
ITEM: BOX BOUNDS pp pp pp
9.9219616563650237e-01 2.0707829834361650e+01
9.9219616563650237e-01 2.0707829834361650e+01
9.9219616563650237e-01 2.0707829834361650e+01
ITEM: ATOMS element vx vy vz
Na 0.00305321 -0.00120028 -0.00297785
Na 0.00458002 0.00743819 0.000751248
Na -0.00176992 0.0149667 -0.00108169
Na 0.00432756 0.015843 0.000411621
Cl 0.00281289 2.45535e-06 0.00290094
Cl -0.00352435 0.00656598 0.00136394
Cl 0.00143055 0.00734914 0.00472798
Cl 0.00473907 -0.00487044 0.00150897
ITEM: TIMESTEP
190
ITEM: NUMBER OF ATOMS
8
ITEM: BOX BOUNDS pp pp pp
9.9219616563650237e-01 2.0707829834361650e+01
9.9219616563650237e-01 2.0707829834361650e+01
9.9219616563650237e-01 2.0707829834361650e+01
ITEM: ATOMS element vx vy vz
Na 0.00278617 -0.000870066 -0.00349685
Na 0.00759578 0.00605611 0.00103115
Na 0.000953676 0.0136817 0.000978946
Na 0.00437736 0.0150078 0.00194147
Cl 0.00335385 -0.000737092 0.00170851
Cl -0.00355168 0.0054983 0.00192573
Cl 0.000953897 0.00870317 0.00412515
Cl 0.00418418 -0.00524571 0.00110975
ITEM: TIMESTEP
200
ITEM: NUMBER OF ATOMS
8
ITEM: BOX BOUNDS pp pp pp
9.9219616563650237e-01 2.0707829834361650e+01
9.9219616563650237e-01 2.0707829834361650e+01
9.9219616563650237e-01 2.0707829834361650e+01
ITEM: ATOMS element vx vy vz
Na 0.00233411 -0.000395929 -0.0042307
Na 0.00926523 0.00457488 0.00122711
Na 0.00402787 0.0112964 0.00302538
Na 0.00440892 0.014404 0.00282278
Cl 0.00321896 -0.000909428 0.000997795
Cl -0.00317184 0.00476184 0.002045
Cl 0.000550269 0.00988761 0.00381319
Cl 0.0034104 -0.0054272 0.000772047
ITEM: TIMESTEP
210
ITEM: NUMBER OF ATOMS
8
ITEM: BOX BOUNDS pp pp pp
9.9219616563650237e-01 2.0707829834361650e+01
9.9219616563650237e-01 2.0707829834361650e+01
9.9219616563650237e-01 2.0707829834361650e+01
ITEM: ATOMS element vx vy vz
Na 0.00183354 0.000327234 -0.0048191
Na 0.00934297 0.00329699 0.00126229
Na 0.00669037 0.00915118 0.00452497
Na 0.00445167 0.0139153 0.00286899
Cl 0.00278714 -0.000743354 0.00053632
Cl -0.00268569 0.00418046 0.00181583
Cl 0.00029636 0.011049 0.00382158
Cl 0.0025304 -0.00562846 0.000634043
ITEM: TIMESTEP
220
ITEM: NUMBER OF ATOMS
8
ITEM: BOX BOUNDS pp pp pp
9.9219616563650237e-01 2.0707829834361650e+01
9.9219616563650237e-01 2.0707829834361650e+01
9.9219616563650237e-01 2.0707829834361650e+01
ITEM: ATOMS element vx vy vz
Na 0.00152747 0.00121713 -0.00497934
Na 0.00779269 0.00222879 0.001078
Na 0.00872382 0.00773405 0.00545562
Na 0.00455946 0.0134779 0.00224885
Cl 0.00235292 -0.000479473 0.000220567
Cl -0.00213514 0.00358361 0.00153204
Cl 0.000211346 0.0121032 0.0039509
Cl 0.0015829 -0.00590516 0.000761319
ITEM: TIMESTEP
230
ITEM: NUMBER OF ATOMS
8
ITEM: BOX BOUNDS pp pp pp
9.9219616563650237e-01 2.0707829834361650e+01
9.9219616563650237e-01 2.0707829834361650e+01
9.9219616563650237e-01 2.0707829834361650e+01
ITEM: ATOMS element vx vy vz
Na 0.00162207 0.00198629 -0.00466584
Na 0.00466297 0.000904485 0.000767807
Na 0.0100837 0.00691352 0.00615796
Na 0.00481855 0.0131133 0.00130645
Cl 0.00195956 -0.000175274 9.70161e-05
Cl -0.00147738 0.00291834 0.0013451
Cl 0.000237118 0.0128546 0.00403275
Cl 0.000629411 -0.00619294 0.00107141
ITEM: TIMESTEP
240
ITEM: NUMBER OF ATOMS
8
ITEM: BOX BOUNDS pp pp pp
9.9219616563650237e-01 2.0707829834361650e+01
9.9219616563650237e-01 2.0707829834361650e+01
9.9219616563650237e-01 2.0707829834361650e+01
ITEM: ATOMS element vx vy vz
Na 0.00218856 0.00224253 -0.00405916
Na 0.000500068 -0.000941612 0.000584914
Na 0.0108095 0.00662702 0.00697812
Na 0.00524671 0.0128576 0.000348592
Cl 0.00156038 0.000279716 0.000135424
Cl -0.000847709 0.00231321 0.00117246
Cl 0.000369285 0.0132493 0.00396482
Cl -0.000284554 -0.0064171 0.00138485
ITEM: TIMESTEP
250
ITEM: NUMBER OF ATOMS
8
ITEM: BOX BOUNDS pp pp pp
9.9219616563650237e-01 2.0707829834361650e+01
9.9219616563650237e-01 2.0707829834361650e+01
9.9219616563650237e-01 2.0707829834361650e+01
ITEM: ATOMS element vx vy vz
Na 0.0030499 0.00172335 -0.00345934
Na -0.00334561 -0.00274062 0.000672805
Na 0.0110348 0.00690758 0.00815648
Na 0.00574442 0.0126972 -0.000431504
Cl 0.00125777 0.000853646 0.000145075
Cl -0.000440811 0.00199541 0.000908398
Cl 0.000715469 0.0133474 0.00371777
Cl -0.00116296 -0.00654979 0.00156427
ITEM: TIMESTEP
260
ITEM: NUMBER OF ATOMS
8
ITEM: BOX BOUNDS pp pp pp
9.9219616563650237e-01 2.0707829834361650e+01
9.9219616563650237e-01 2.0707829834361650e+01
9.9219616563650237e-01 2.0707829834361650e+01
ITEM: ATOMS element vx vy vz
Na 0.00391054 0.000514616 -0.00317219
Na -0.00589135 -0.00389861 0.000921016
Na 0.0109722 0.0077247 0.00975279
Na 0.00617088 0.0125729 -0.000951863
Cl 0.00118375 0.00132136 9.98876e-06
Cl -0.000357438 0.00200707 0.000472003
Cl 0.00137357 0.0132476 0.00333536
Cl -0.00208569 -0.00659963 0.00160318
ITEM: TIMESTEP
270
ITEM: NUMBER OF ATOMS
8
ITEM: BOX BOUNDS pp pp pp
9.9219616563650237e-01 2.0707829834361650e+01
9.9219616563650237e-01 2.0707829834361650e+01
9.9219616563650237e-01 2.0707829834361650e+01
ITEM: ATOMS element vx vy vz
Na 0.0046636 -0.00108689 -0.00344814
Na -0.00711872 -0.00448506 0.00109184
Na 0.0108906 0.008896 0.0115895
Na 0.00642316 0.0124293 -0.00119952
Cl 0.00134762 0.00149683 -0.000288243
Cl -0.000550053 0.00212608 -0.000195564
Cl 0.00226791 0.013042 0.00283621
Cl -0.00313681 -0.00658481 0.00154672
ITEM: TIMESTEP
280
ITEM: NUMBER OF ATOMS
8
ITEM: BOX BOUNDS pp pp pp
9.9219616563650237e-01 2.0707829834361650e+01
9.9219616563650237e-01 2.0707829834361650e+01
9.9219616563650237e-01 2.0707829834361650e+01
ITEM: ATOMS element vx vy vz
Na 0.00530124 -0.0027905 -0.00439111
Na -0.00732723 -0.00486597 0.000932142
Na 0.011054 0.0101083 0.0133976
Na 0.00646706 0.0122439 -0.00122734
Cl 0.00167188 0.00138914 -0.000733317
Cl -0.000846259 0.00216212 -0.00108027
Cl 0.00319906 0.012801 0.00220136
Cl -0.00431031 -0.00644793 0.00135079
ITEM: TIMESTEP
290
ITEM: NUMBER OF ATOMS
8
ITEM: BOX BOUNDS pp pp pp
9.9219616563650237e-01 2.0707829834361650e+01
9.9219616563650237e-01 2.0707829834361650e+01
9.9219616563650237e-01 2.0707829834361650e+01
ITEM: ATOMS element vx vy vz
Na 0.00579278 -0.00432934 -0.00587425
Na -0.0068188 -0.00523671 -2.23698e-05
Na 0.0115253 0.0109467 0.0150223
Na 0.00635272 0.0119499 -0.00115035
Cl 0.00204173 0.00118096 -0.00127476
Cl -0.00109528 0.00208242 -0.00204806
Cl 0.00400099 0.0125778 0.00150317
Cl -0.00550297 -0.00610796 0.000932444
ITEM: TIMESTEP
300
ITEM: NUMBER OF ATOMS
8
ITEM: BOX BOUNDS pp pp pp
9.9219616563650237e-01 2.0707829834361650e+01
9.9219616563650237e-01 2.0707829834361650e+01
9.9219616563650237e-01 2.0707829834361650e+01
ITEM: ATOMS element vx vy vz
Na 0.00609225 -0.0054546 -0.00763159
Na -0.00584869 -0.00557956 -0.00238433
Na 0.0117965 0.0106888 0.0164561
Na 0.00623916 0.0113795 -0.00111723
Cl 0.00233306 0.00103521 -0.00184706
Cl -0.00125727 0.0018224 -0.00290213
Cl 0.00458873 0.0123868 0.0009176
Cl -0.00658866 -0.00559318 0.00027418
ITEM: TIMESTEP
310
ITEM: NUMBER OF ATOMS
8
ITEM: BOX BOUNDS pp pp pp
9.9219616563650237e-01 2.0707829834361650e+01
9.9219616563650237e-01 2.0707829834361650e+01
9.9219616563650237e-01 2.0707829834361650e+01
ITEM: ATOMS element vx vy vz
Na 0.00619427 -0.0059995 -0.00936534
Na -0.00448592 -0.00579661 -0.00616234
Na 0.0103263 0.00779092 0.0178629
Na 0.00639572 0.0102482 -0.00129143
Cl 0.00240768 0.000971442 -0.00236377
Cl -0.00141864 0.0012274 -0.0035762
Cl 0.00491448 0.0121954 0.00057805
Cl -0.00749086 -0.00502002 -0.000503378
ITEM: TIMESTEP
320
ITEM: NUMBER OF ATOMS
8
ITEM: BOX BOUNDS pp pp pp
9.9219616563650237e-01 2.0707829834361650e+01
9.9219616563650237e-01 2.0707829834361650e+01
9.9219616563650237e-01 2.0707829834361650e+01
ITEM: ATOMS element vx vy vz
Na 0.00617878 -0.00593082 -0.010733
Na -0.00264155 -0.0057923 -0.0103512
Na 0.0053485 0.000797998 0.0196188
Na 0.00713688 0.0080962 -0.00180268
Cl 0.00216147 0.000951264 -0.00274364
Cl -0.00167396 0.000296978 -0.00408111
Cl 0.00493544 0.0119691 0.000452419
Cl -0.00821407 -0.00443363 -0.00117709
ITEM: TIMESTEP
330
ITEM: NUMBER OF ATOMS
8
ITEM: BOX BOUNDS pp pp pp
9.9219616563650237e-01 2.0707829834361650e+01
9.9219616563650237e-01 2.0707829834361650e+01
9.9219616563650237e-01 2.0707829834361650e+01
ITEM: ATOMS element vx vy vz
Na 0.00615639 -0.0053877 -0.0114168
Na -0.000352401 -0.005525 -0.0136975
Na -0.00105484 -0.00694966 0.0211991
Na 0.00860999 0.0045085 -0.00268868
Cl 0.00162377 0.000956344 -0.00298346
Cl -0.00207502 -0.000779445 -0.00436576
Cl 0.00467864 0.0117218 0.000392833
Cl -0.00874887 -0.0037012 -0.00161016
ITEM: TIMESTEP
340
ITEM: NUMBER OF ATOMS
8
ITEM: BOX BOUNDS pp pp pp
9.9219616563650237e-01 2.0707829834361650e+01
9.9219616563650237e-01 2.0707829834361650e+01
9.9219616563650237e-01 2.0707829834361650e+01
ITEM: ATOMS element vx vy vz
Na 0.0061345 -0.00465656 -0.0113253
Na 0.0020386 -0.00505562 -0.0155873
Na -0.00585725 -0.0110004 0.0210918
Na 0.0103958 -0.000147668 -0.00384135
Cl 0.000917961 0.00100963 -0.00313676
Cl -0.00266147 -0.00173928 -0.00442018
Cl 0.00430928 0.0114629 0.000273217
Cl -0.00899486 -0.00274909 -0.00176337
ITEM: TIMESTEP
350
ITEM: NUMBER OF ATOMS
8
ITEM: BOX BOUNDS pp pp pp
9.9219616563650237e-01 2.0707829834361650e+01
9.9219616563650237e-01 2.0707829834361650e+01
9.9219616563650237e-01 2.0707829834361650e+01
ITEM: ATOMS element vx vy vz
Na 0.00604585 -0.00398306 -0.0107486
Na 0.00407717 -0.00454294 -0.0159972
Na -0.0099472 -0.0121632 0.0190805
Na 0.011451 -0.00451282 -0.00508556
Cl 0.000156262 0.00118542 -0.00323161
Cl -0.0033624 -0.00238734 -0.0042179
Cl 0.00403379 0.0111538 1.59241e-05
Cl -0.00882039 -0.00169291 -0.00152523
ITEM: TIMESTEP
360
ITEM: NUMBER OF ATOMS
8
ITEM: BOX BOUNDS pp pp pp
9.9219616563650237e-01 2.0707829834361650e+01
9.9219616563650237e-01 2.0707829834361650e+01
9.9219616563650237e-01 2.0707829834361650e+01
ITEM: ATOMS element vx vy vz
Na 0.00593915 -0.00332713 -0.010183
Na 0.00552439 -0.00413874 -0.0152274
Na -0.0138724 -0.012074 0.0158717
Na 0.0108104 -0.00744965 -0.00640911
Cl -0.000584227 0.00153795 -0.00326703
Cl -0.00396847 -0.00272578 -0.00382175
Cl 0.00392889 0.010758 -0.000423189
Cl -0.00802618 -0.000709657 -0.000730286
ITEM: TIMESTEP
370
ITEM: NUMBER OF ATOMS
8
ITEM: BOX BOUNDS pp pp pp
9.9219616563650237e-01 2.0707829834361650e+01
9.9219616563650237e-01 2.0707829834361650e+01
9.9219616563650237e-01 2.0707829834361650e+01
ITEM: ATOMS element vx vy vz
Na 0.00600192 -0.00232407 -0.00993206
Na 0.00634498 -0.00390851 -0.0138393
Na -0.016455 -0.0113866 0.0123732
Na 0.00819762 -0.00875542 -0.00796412
Cl -0.00123055 0.00202103 -0.00324319
Cl -0.00426985 -0.00286665 -0.00353539
Cl 0.00396992 0.0102956 -0.000957808
Cl -0.00645579 3.25661e-05 0.000720391
ITEM: TIMESTEP
380
ITEM: NUMBER OF ATOMS
8
ITEM: BOX BOUNDS pp pp pp
9.9219616563650237e-01 2.0707829834361650e+01
9.9219616563650237e-01 2.0707829834361650e+01
9.9219616563650237e-01 2.0707829834361650e+01
ITEM: ATOMS element vx vy vz
Na 0.00630274 -0.000669617 -0.00994026
Na 0.00654109 -0.00378098 -0.0125971
Na -0.0158614 -0.00989371 0.00906904
Na 0.00418406 -0.0086329 -0.00961394
Cl -0.00171598 0.00245318 -0.00318383
Cl -0.00426503 -0.00289768 -0.00362391
Cl 0.00416186 0.00987758 -0.00131276
Cl -0.00431811 0.00050648 0.00271417
ITEM: TIMESTEP
390
ITEM: NUMBER OF ATOMS
8
ITEM: BOX BOUNDS pp pp pp
9.9219616563650237e-01 2.0707829834361650e+01
9.9219616563650237e-01 2.0707829834361650e+01
9.9219616563650237e-01 2.0707829834361650e+01
ITEM: ATOMS element vx vy vz
Na 0.00665292 0.00146706 -0.00998348
Na 0.00609324 -0.00353903 -0.0122041
Na -0.0112465 -0.00695929 0.00587179
Na -2.99301e-05 -0.0071893 -0.0105249
Cl -0.00202145 0.00264329 -0.00316577
Cl -0.00411501 -0.00285706 -0.00396633
Cl 0.00460337 0.00961298 -0.0012256
Cl -0.00221823 0.000836782 0.00487082
ITEM: TIMESTEP
400
ITEM: NUMBER OF ATOMS
8
ITEM: BOX BOUNDS pp pp pp
9.9219616563650237e-01 2.0707829834361650e+01
9.9219616563650237e-01 2.0707829834361650e+01
9.9219616563650237e-01 2.0707829834361650e+01
ITEM: ATOMS element vx vy vz
Na 0.00685183 0.00360698 -0.00981529
Na 0.00503883 -0.00293659 -0.0129215
Na -0.00521038 -0.00328657 0.00312822
Na -0.00343174 -0.00449022 -0.0096881
Cl -0.002178 0.00258463 -0.00327092
Cl -0.00390638 -0.0028837 -0.00425043
Cl 0.00535502 0.00944993 -0.000722999
Cl -0.000680895 0.00120065 0.00676827
ITEM: TIMESTEP
410
ITEM: NUMBER OF ATOMS
8
ITEM: BOX BOUNDS pp pp pp
9.9219616563650237e-01 2.0707829834361650e+01
9.9219616563650237e-01 2.0707829834361650e+01
9.9219616563650237e-01 2.0707829834361650e+01
ITEM: ATOMS element vx vy vz
Na 0.0068129 0.00524543 -0.00919409
Na 0.00357394 -0.00184947 -0.0145054
Na -0.00135477 -0.000488165 0.00152643
Na -0.00577773 -0.0011729 -0.00722434
Cl -0.00224969 0.00243552 -0.00348728
Cl -0.00371489 -0.00310686 -0.00435434
Cl 0.00628401 0.00929156 -6.6856e-05
Cl 0.000174639 0.0017539 0.00817538
ITEM: TIMESTEP
420
ITEM: NUMBER OF ATOMS
8
ITEM: BOX BOUNDS pp pp pp
9.9219616563650237e-01 2.0707829834361650e+01
9.9219616563650237e-01 2.0707829834361650e+01
9.9219616563650237e-01 2.0707829834361650e+01
ITEM: ATOMS element vx vy vz
Na 0.00639296 0.00589775 -0.00793009
Na 0.0021163 -0.000390457 -0.0164423
Na 0.000306315 0.00116778 0.00111096
Na -0.00724111 0.00144437 -0.0044853
Cl -0.00230321 0.00238172 -0.00373386
Cl -0.00361166 -0.00344387 -0.00436517
Cl 0.00714018 0.0091581 0.000537747
Cl 0.000465498 0.00258667 0.00897649
ITEM: TIMESTEP
430
ITEM: NUMBER OF ATOMS
8
ITEM: BOX BOUNDS pp pp pp
9.9219616563650237e-01 2.0707829834361650e+01
9.9219616563650237e-01 2.0707829834361650e+01
9.9219616563650237e-01 2.0707829834361650e+01
ITEM: ATOMS element vx vy vz
Na 0.00546447 0.00530362 -0.00600324
Na 0.00115487 0.00114771 -0.0182058
Na 0.00106328 0.00198238 0.00154246
Na -0.00794659 0.00270649 -0.00235356
Cl -0.00235986 0.0025533 -0.00392107
Cl -0.00354868 -0.0037029 -0.00438423
Cl 0.00767154 0.00912019 0.00103635
Cl 0.000338231 0.00367125 0.0090392
ITEM: TIMESTEP
440
ITEM: NUMBER OF ATOMS
8
ITEM: BOX BOUNDS pp pp pp
9.9219616563650237e-01 2.0707829834361650e+01
9.9219616563650237e-01 2.0707829834361650e+01
9.9219616563650237e-01 2.0707829834361650e+01
ITEM: ATOMS element vx vy vz
Na 0.0041445 0.00372454 -0.0036818
Na 0.000915222 0.00247921 -0.0193808
Na 0.00157565 0.00210176 0.00239768
Na -0.00794015 0.0031556 -0.000798936
Cl -0.00238427 0.0029816 -0.00396878
Cl -0.00337063 -0.00385692 -0.00439641
Cl 0.00768416 0.0091864 0.0014433
Cl -7.77014e-05 0.00485221 0.00823529
ITEM: TIMESTEP
450
ITEM: NUMBER OF ATOMS
8
ITEM: BOX BOUNDS pp pp pp
9.9219616563650237e-01 2.0707829834361650e+01
9.9219616563650237e-01 2.0707829834361650e+01
9.9219616563650237e-01 2.0707829834361650e+01
ITEM: ATOMS element vx vy vz
Na 0.00276275 0.00187547 -0.00143841
Na 0.00114513 0.00334248 -0.0195292
Na 0.00210062 0.00155811 0.00329668
Na -0.00721815 0.00369213 0.000286799
Cl -0.00228663 0.00359427 -0.00386668
Cl -0.00299286 -0.00411842 -0.00428607
Cl 0.00710104 0.00931464 0.00181455
Cl -0.000643999 0.00596147 0.00648701
ITEM: TIMESTEP
460
ITEM: NUMBER OF ATOMS
8
ITEM: BOX BOUNDS pp pp pp
9.9219616563650237e-01 2.0707829834361650e+01
9.9219616563650237e-01 2.0707829834361650e+01
9.9219616563650237e-01 2.0707829834361650e+01
ITEM: ATOMS element vx vy vz
Na 0.00166222 0.000459961 0.000324189
Na 0.000998373 0.00317817 -0.01757
Na 0.00277618 0.000316674 0.00402214
Na -0.00575819 0.00482479 0.000749808
Cl -0.00195531 0.00420863 -0.00369011
Cl -0.00251179 -0.00467001 -0.00400781
Cl 0.0059613 0.00947329 0.00229427
Cl -0.00121531 0.00693594 0.00382215
ITEM: TIMESTEP
470
ITEM: NUMBER OF ATOMS
8
ITEM: BOX BOUNDS pp pp pp
9.9219616563650237e-01 2.0707829834361650e+01
9.9219616563650237e-01 2.0707829834361650e+01
9.9219616563650237e-01 2.0707829834361650e+01
ITEM: ATOMS element vx vy vz
Na 0.00105793 -0.000149504 0.00140666
Na -0.00108756 0.000792525 -0.0110324
Na 0.0036285 -0.00161411 0.00446657
Na -0.00361976 0.00648696 0.000386234
Cl -0.00137019 0.00456583 -0.00352756
Cl -0.00205191 -0.00541869 -0.00359701
Cl 0.00443907 0.00960102 0.00304592
Cl -0.00165098 0.00778972 0.000580211
ITEM: TIMESTEP
480
ITEM: NUMBER OF ATOMS
8
ITEM: BOX BOUNDS pp pp pp
9.9219616563650237e-01 2.0707829834361650e+01
9.9219616563650237e-01 2.0707829834361650e+01
9.9219616563650237e-01 2.0707829834361650e+01
ITEM: ATOMS element vx vy vz
Na 0.000949137 0.00011711 0.00173475
Na -0.00534715 -0.00375889 -0.000239068
Na 0.00458681 -0.00416843 0.00458967
Na -0.00101353 0.0082495 -0.000756322
Cl -0.000665088 0.00443475 -0.00338672
Cl -0.00169443 -0.00601871 -0.00304036
Cl 0.00289259 0.00955232 0.00405285
Cl -0.00188308 0.008509 -0.00250519
ITEM: TIMESTEP
490
ITEM: NUMBER OF ATOMS
8
ITEM: BOX BOUNDS pp pp pp
9.9219616563650237e-01 2.0707829834361650e+01
9.9219616563650237e-01 2.0707829834361650e+01
9.9219616563650237e-01 2.0707829834361650e+01
ITEM: ATOMS element vx vy vz
Na 0.00113411 0.00113365 0.00139405
Na -0.00837527 -0.00713027 0.00727804
Na 0.00552352 -0.00722526 0.00445779
Na 0.0017404 0.00959234 -0.00231323
Cl -3.88116e-05 0.0037046 -0.00315899
Cl -0.00137044 -0.00608305 -0.00252471
Cl 0.00169916 0.00921704 0.00509975
Cl -0.00200753 0.00902881 -0.00468359
ITEM: TIMESTEP
500
ITEM: NUMBER OF ATOMS
8
ITEM: BOX BOUNDS pp pp pp
9.9219616563650237e-01 2.0707829834361650e+01
9.9219616563650237e-01 2.0707829834361650e+01
9.9219616563650237e-01 2.0707829834361650e+01
ITEM: ATOMS element vx vy vz
Na 0.00137521 0.00254293 0.000647366
Na -0.00923726 -0.00840007 0.00986989
Na 0.00628484 -0.010458 0.00422814
Na 0.00433236 0.0101478 -0.00381586
Cl 0.000377855 0.00234822 -0.00271855
Cl -0.000884129 -0.00560616 -0.00232784
Cl 0.00100934 0.00865293 0.00597712
Cl -0.00219787 0.00928432 -0.00559753
ITEM: TIMESTEP
510
ITEM: NUMBER OF ATOMS
8
ITEM: BOX BOUNDS pp pp pp
9.9219616563650237e-01 2.0707829834361650e+01
9.9219616563650237e-01 2.0707829834361650e+01
9.9219616563650237e-01 2.0707829834361650e+01
ITEM: ATOMS element vx vy vz
Na 0.0015049 0.00387609 -0.000187962
Na -0.00907202 -0.00863191 0.0102739
Na 0.00671194 -0.0132479 0.00410643
Na 0.0065306 0.00981323 -0.00495352
Cl 0.000571775 0.000496924 -0.00200557
Cl -0.000172332 -0.00464204 -0.00238488
Cl 0.000779071 0.00798558 0.00663597
Cl -0.00255251 0.00920476 -0.00525808
ITEM: TIMESTEP
520
ITEM: NUMBER OF ATOMS
8
ITEM: BOX BOUNDS pp pp pp
9.9219616563650237e-01 2.0707829834361650e+01
9.9219616563650237e-01 2.0707829834361650e+01
9.9219616563650237e-01 2.0707829834361650e+01
ITEM: ATOMS element vx vy vz
Na 0.00149996 0.00481192 -0.000796934
Na -0.00845995 -0.00836501 0.00988879
Na 0.00666661 -0.0148718 0.00425809
Na 0.00816877 0.00875976 -0.00563403
Cl 0.000440185 -0.0013565 -0.00103959
Cl 0.000701888 -0.00324994 -0.00241269
Cl 0.000872635 0.00734162 0.00712276
Cl -0.00301247 0.00868967 -0.00400425
ITEM: TIMESTEP
530
ITEM: NUMBER OF ATOMS
8
ITEM: BOX BOUNDS pp pp pp
9.9219616563650237e-01 2.0707829834361650e+01
9.9219616563650237e-01 2.0707829834361650e+01
9.9219616563650237e-01 2.0707829834361650e+01
ITEM: ATOMS element vx vy vz
Na 0.00145319 0.00528342 -0.000960021
Na -0.00763903 -0.00771136 0.00914273
Na 0.00610523 -0.0147103 0.0047514
Na 0.00908897 0.00739487 -0.00588697
Cl -0.000139579 -0.0026453 -5.72815e-06
Cl 0.00150941 -0.00165398 -0.00211199
Cl 0.00117623 0.00685549 0.00741159
Cl -0.00338669 0.00757516 -0.00257191
ITEM: TIMESTEP
540
ITEM: NUMBER OF ATOMS
8
ITEM: BOX BOUNDS pp pp pp
9.9219616563650237e-01 2.0707829834361650e+01
9.9219616563650237e-01 2.0707829834361650e+01
9.9219616563650237e-01 2.0707829834361650e+01
ITEM: ATOMS element vx vy vz
Na 0.00149044 0.0054206 -0.000608479
Na -0.00681452 -0.00670845 0.0082084
Na 0.00515161 -0.01231 0.00570661
Na 0.00913158 0.00619252 -0.00574598
Cl -0.000964494 -0.00307699 0.000825638
Cl 0.00204694 6.66818e-05 -0.0014616
Cl 0.00165023 0.00658588 0.00739184
Cl -0.00364327 0.00560415 -0.00170445
ITEM: TIMESTEP
550
ITEM: NUMBER OF ATOMS
8
ITEM: BOX BOUNDS pp pp pp
9.9219616563650237e-01 2.0707829834361650e+01
9.9219616563650237e-01 2.0707829834361650e+01
9.9219616563650237e-01 2.0707829834361650e+01
ITEM: ATOMS element vx vy vz
Na 0.00167424 0.00539869 0.000179631
Na -0.00614556 -0.00552587 0.00712183
Na 0.00406776 -0.00776536 0.00728529
Na 0.00832644 0.00543111 -0.00520242
Cl -0.0015979 -0.00281484 0.00129519
Cl 0.0023449 0.00198649 -0.000649167
Cl 0.00222421 0.00647674 0.00704471
Cl -0.00379154 0.00272054 -0.00152272
ITEM: TIMESTEP
560
ITEM: NUMBER OF ATOMS
8
ITEM: BOX BOUNDS pp pp pp
9.9219616563650237e-01 2.0707829834361650e+01
9.9219616563650237e-01 2.0707829834361650e+01